<VTKFile type="UnstructuredGrid" version="1.0" header_type="UInt32">
<UnstructuredGrid>
<Piece NumberOfPoints="88" NumberOfCells="66">
<Points>
<DataArray type="Float32" NumberOfComponents="3" format="ascii">
0.75 0 0 0.75 0.174283876 0
0.726875538 0.132997169 0 0.701675537 0.0901876203 0
0.674400403 0.0458552308 0 0.645050137 0 0
0.75 0 0 1 0 0
1 0.25 0 0.788926768 0.249999758 0
0.77043883 0.2128575 0 0.750000407 0.174283876 0
1 0.25 0 1 0.5 0
0.866919727 0.499999943 0 0.864302237 0.473983485 0
0.859647139 0.446471723 0 0.852954432 0.417464657 0
0.844224116 0.386962286 0 0.833456192 0.35496461 0
0.820650659 0.321471631 0 0.805807518 0.286483346 0
0.788926768 0.25 0 0.25 0.75 0
0 0.75 0 0 0.562971953 0
0.0302796433 0.578067389 0 0.060836528 0.592370942 0
0.0916706541 0.605882611 0 0.122782022 0.618602396 0
0.15417063 0.630530297 0 0.185836481 0.641666315 0
0.217779572 0.652010448 0 0.249999905 0.661562699 0
0.5 0.75 0 0.25 0.75 0
0.25 0.661562699 0 0.311043442 0.677311526 0
0.373057964 0.69028693 0 0.436043472 0.700488911 0
0.499999966 0.707917469 0 0.75 0.75 0
0.5 0.75 0 0.5 0.707917469 0
0.536551704 0.710887546 0 0.573247434 0.712924291 0
0.608241916 0.713486538 0 0.641022111 0.712423823 0
0.671588017 0.709736148 0 0.699939635 0.705423512 0
0.726076966 0.699485914 0 0.75 0.691923356 0
1 0.5 0 1 0.75 0
0.75 0.75 0 0.750000009 0.691923356 0
0.765237928 0.685747914 0 0.779418456 0.678796504 0
0.792541592 0.671069123 0 0.804607337 0.662565773 0
0.81561569 0.653286454 0 0.825566651 0.643231165 0
0.834460221 0.632399906 0 0.842296399 0.620792677 0
0.849075186 0.608409479 0 0.854796581 0.595250312 0
0.859460584 0.581315174 0 0.863067196 0.566604067 0
0.865616416 0.551116991 0 0.867108245 0.534853944 0
0.867542682 0.517814929 0 0.866919727 0.5 0
0 0.75 0 0.25 0.75 0
0 1 0 0.25 1 0
0.25 0.75 0 0.5 0.75 0
0.25 1 0 0.5 1 0
0.5 0.75 0 0.75 0.75 0
0.5 1 0 0.75 1 0
0.75 0.75 0 1 0.75 0
0.75 1 0 1 1 0
</DataArray>
</Points>
<Cells>
<DataArray type="Int64" Name="connectivity" format="ascii">
4 0 5 3 0 4
0 3 2 0 2 1
10 6 11 10 8 6
6 8 7 8 10 9
21 12 22 20 12 21
19 12 20 18 12 19
17 12 18 12 17 16
12 16 15 12 15 14
12 14 13 23 26 25
23 27 26 23 28 27
28 23 29 29 23 30
23 25 24 30 23 31
31 23 32 32 23 33
34 37 36 37 34 38
34 36 35 38 34 39
39 34 40 41 44 43
41 45 44 41 43 42
41 46 45 46 41 47
47 41 48 48 41 49
49 41 50 50 41 51
70 52 71 69 52 70
68 52 69 67 52 68
66 52 67 65 52 66
64 52 65 63 52 64
52 60 59 62 52 63
52 62 61 52 61 60
52 59 54 54 57 56
54 59 58 54 58 57
54 56 55 52 54 53
72 74 73 73 74 75
76 78 77 77 78 79
80 82 81 81 82 83
84 86 85 85 86 87
</DataArray>
<DataArray type="Int64" Name="offsets" format="ascii">
3 6 9 12 15 18
21 24 27 30 33 36
39 42 45 48 51 54
57 60 63 66 69 72
75 78 81 84 87 90
93 96 99 102 105 108
111 114 117 120 123 126
129 132 135 138 141 144
147 150 153 156 159 162
165 168 171 174 177 180
183 186 189 192 195 198
</DataArray>
<DataArray type="UInt8" Name="types" format="ascii">
69 69 69 69 69 69
69 69 69 69 69 69
69 69 69 69 69 69
69 69 69 69 69 69
69 69 69 69 69 69
69 69 69 69 69 69
69 69 69 69 69 69
69 69 69 69 69 69
69 69 69 69 69 69
69 69 69 69 69 69
69 69 69 69 69 69
</DataArray>
</Cells>
<PointData Scalars="g">
<DataArray Name="g" type="Float32" NumberOfComponents="1" format="ascii">
0 0.420225506 0.291014923 0.175422518 0.0771296854 0
0 0 0.707258457 0.619054904 0.520504528 0.420225625
0.707258457 1.31236311 1.38908287 1.31357909 1.23383254 1.14909125
1.05853053 0.96125298 0.856288496 0.742594252 0.619055505 2.01589274
2.04982725 2.04976928 2.04479666 2.03992317 2.03513871 2.03043293
2.0257953 2.02121504 2.01668117 2.01218248 1.91911023 2.01589274
2.01218246 1.98628787 1.96090653 1.93572343 1.91041285 1.81531395
1.91911023 1.91041284 1.88882499 1.86768996 1.84719971 1.8267514
1.80559437 1.78308407 1.75868205 1.73195598 1.31236311 1.79925452
1.81531395 1.73195597 1.72010732 1.70693302 1.69241062 1.67652774
1.6592821 1.64068152 1.62074387 1.59949715 1.57697941 1.55323882
1.52833361 1.50233212 1.47531276 1.44736403 1.41858454 1.38908304
2.04982725 2.01589274 2.04866857 2.01931155 2.01589274 1.91911023
2.01931155 1.9486634 1.91911023 1.81531395 1.9486634 1.88186179
1.81531395 1.79925452 1.88186179 1.85137355 
</DataArray>
</PointData>
<CellData>
</CellData>
</Piece>
</UnstructuredGrid>
</VTKFile>