<VTKFile type="UnstructuredGrid" version="1.0" header_type="UInt32">
<UnstructuredGrid>
<Piece NumberOfPoints="3153" NumberOfCells="1599">
<Points>
<DataArray type="Float32" NumberOfComponents="3" format="ascii">
0 0 0 0.03125 0 0
0 0.03125 0 0.03125 0.03125 0
0.03125 0 0 0.0625 0 0
0.03125 0.03125 0 0.0625 0.03125 0
0.0625 0 0 0.09375 0 0
0.0625 0.03125 0 0.09375 0.03125 0
0.09375 0 0 0.125 0 0
0.09375 0.03125 0 0.125 0.03125 0
0.125 0 0 0.15625 0 0
0.125 0.03125 0 0.15625 0.03125 0
0.15625 0 0 0.1875 0 0
0.15625 0.03125 0 0.1875 0.03125 0
0.1875 0 0 0.21875 0 0
0.1875 0.03125 0 0.21875 0.03125 0
0.21875 0 0 0.25 0 0
0.21875 0.03125 0 0.25 0.03125 0
0.25 0 0 0.28125 0 0
0.25 0.03125 0 0.28125 0.03125 0
0.28125 0 0 0.3125 0 0
0.28125 0.03125 0 0.3125 0.03125 0
0.3125 0 0 0.34375 0 0
0.3125 0.03125 0 0.34375 0.03125 0
0.34375 0 0 0.375 0 0
0.34375 0.03125 0 0.375 0.03125 0
0.375 0 0 0.40625 0 0
0.375 0.03125 0 0.40625 0.03125 0
0.40625 0 0 0.4375 0 0
0.40625 0.03125 0 0.4375 0.03125 0
0.4375 0 0 0.46875 0 0
0.4375 0.03125 0 0.46875 0.03125 0
0.46875 0 0 0.5 0 0
0.46875 0.03125 0 0.5 0.03125 0
0.5 0 0 0.53125 0 0
0.5 0.03125 0 0.53125 0.03125 0
0.53125 0 0 0.5625 0 0
0.53125 0.03125 0 0.5625 0.03125 0
0.5625 0 0 0.59375 0 0
0.5625 0.03125 0 0.59375 0.03125 0
0.59375 0 0 0.625 0 0
0.59375 0.03125 0 0.625 0.03125 0
0.625 0 0 0.65625 0 0
0.625 0.03125 0 0.65625 0.03125 0
0.65625 0 0 0.6875 0 0
0.65625 0.03125 0 0.6875 0.03125 0
0.6875 0 0 0.71875 0 0
0.6875 0.03125 0 0.71875 0.03125 0
0.71875 0 0 0.75 0 0
0.71875 0.03125 0 0.75 0.03125 0
0.75 0 0 0.78125 0 0
0.75 0.03125 0 0.78125 0.03125 0
0.78125 0 0 0.8125 0 0
0.78125 0.03125 0 0.8125 0.03125 0
0.8125 0 0 0.84375 0 0
0.8125 0.03125 0 0.84375 0.03125 0
0.84375 0 0 0.875 0 0
0.84375 0.03125 0 0.875 0.03125 0
0.875 0 0 0.90625 0 0
0.875 0.03125 0 0.90625 0.03125 0
0.90625 0 0 0.9375 0 0
0.90625 0.03125 0 0.9375 0.03125 0
0.9375 0 0 0.96875 0 0
0.9375 0.03125 0 0.96875 0.03125 0
0.96875 0 0 1 0 0
0.96875 0.03125 0 1 0.03125 0
0 0.03125 0 0.03125 0.03125 0
0 0.0625 0 0.03125 0.0625 0
0.03125 0.03125 0 0.0625 0.03125 0
0.03125 0.0625 0 0.0625 0.0625 0
0.0625 0.03125 0 0.09375 0.03125 0
0.0625 0.0625 0 0.09375 0.0625 0
0.09375 0.03125 0 0.125 0.03125 0
0.09375 0.0625 0 0.125 0.0625 0
0.125 0.03125 0 0.15625 0.03125 0
0.125 0.0625 0 0.15625 0.0625 0
0.15625 0.03125 0 0.1875 0.03125 0
0.15625 0.0625 0 0.1875 0.0625 0
0.1875 0.03125 0 0.21875 0.03125 0
0.1875 0.0625 0 0.21875 0.0625 0
0.21875 0.03125 0 0.25 0.03125 0
0.21875 0.0625 0 0.25 0.0625 0
0.25 0.03125 0 0.28125 0.03125 0
0.25 0.0625 0 0.28125 0.0625 0
0.28125 0.03125 0 0.3125 0.03125 0
0.28125 0.0625 0 0.3125 0.0625 0
0.3125 0.03125 0 0.34375 0.03125 0
0.3125 0.0625 0 0.34375 0.0625 0
0.34375 0.03125 0 0.375 0.03125 0
0.34375 0.0625 0 0.375 0.0625 0
0.375 0.03125 0 0.40625 0.03125 0
0.375 0.0625 0 0.40625 0.0625 0
0.40625 0.03125 0 0.4375 0.03125 0
0.40625 0.0625 0 0.4375 0.0625 0
0.4375 0.03125 0 0.46875 0.03125 0
0.4375 0.0625 0 0.46875 0.0625 0
0.46875 0.03125 0 0.5 0.03125 0
0.46875 0.0625 0 0.5 0.0625 0
0.5 0.03125 0 0.53125 0.03125 0
0.5 0.0625 0 0.53125 0.0625 0
0.53125 0.03125 0 0.5625 0.03125 0
0.53125 0.0625 0 0.5625 0.0625 0
0.5625 0.03125 0 0.59375 0.03125 0
0.5625 0.0625 0 0.59375 0.0625 0
0.59375 0.03125 0 0.625 0.03125 0
0.59375 0.0625 0 0.625 0.0625 0
0.625 0.03125 0 0.65625 0.03125 0
0.625 0.0625 0 0.65625 0.0625 0
0.65625 0.03125 0 0.6875 0.03125 0
0.65625 0.0625 0 0.6875 0.0625 0
0.6875 0.03125 0 0.71875 0.03125 0
0.6875 0.0625 0 0.71875 0.0625 0
0.71875 0.03125 0 0.75 0.03125 0
0.71875 0.0625 0 0.75 0.0625 0
0.75 0.03125 0 0.78125 0.03125 0
0.75 0.0625 0 0.78125 0.0625 0
0.78125 0.03125 0 0.8125 0.03125 0
0.78125 0.0625 0 0.8125 0.0625 0
0.8125 0.03125 0 0.84375 0.03125 0
0.8125 0.0625 0 0.84375 0.0625 0
0.84375 0.03125 0 0.875 0.03125 0
0.84375 0.0625 0 0.875 0.0625 0
0.875 0.03125 0 0.90625 0.03125 0
0.875 0.0625 0 0.90625 0.0625 0
0.90625 0.03125 0 0.9375 0.03125 0
0.90625 0.0625 0 0.9375 0.0625 0
0.9375 0.03125 0 0.96875 0.03125 0
0.9375 0.0625 0 0.96875 0.0625 0
0.96875 0.03125 0 1 0.03125 0
0.96875 0.0625 0 1 0.0625 0
0 0.0625 0 0.03125 0.0625 0
0 0.09375 0 0.03125 0.09375 0
0.03125 0.0625 0 0.0625 0.0625 0
0.03125 0.09375 0 0.0625 0.09375 0
0.0625 0.0625 0 0.09375 0.0625 0
0.0625 0.09375 0 0.09375 0.09375 0
0.09375 0.0625 0 0.125 0.0625 0
0.09375 0.09375 0 0.125 0.09375 0
0.125 0.0625 0 0.15625 0.0625 0
0.125 0.09375 0 0.15625 0.09375 0
0.15625 0.0625 0 0.1875 0.0625 0
0.15625 0.09375 0 0.1875 0.09375 0
0.1875 0.0625 0 0.21875 0.0625 0
0.1875 0.09375 0 0.21875 0.09375 0
0.21875 0.0625 0 0.25 0.0625 0
0.21875 0.09375 0 0.25 0.09375 0
0.25 0.0625 0 0.28125 0.0625 0
0.25 0.09375 0 0.28125 0.09375 0
0.28125 0.0625 0 0.3125 0.0625 0
0.28125 0.09375 0 0.3125 0.09375 0
0.3125 0.0625 0 0.34375 0.0625 0
0.3125 0.09375 0 0.34375 0.09375 0
0.34375 0.0625 0 0.375 0.0625 0
0.34375 0.09375 0 0.375 0.09375 0
0.375 0.0625 0 0.40625 0.0625 0
0.375 0.09375 0 0.40625 0.09375 0
0.40625 0.0625 0 0.4375 0.0625 0
0.40625 0.09375 0 0.4375 0.09375 0
0.4375 0.0625 0 0.46875 0.0625 0
0.4375 0.09375 0 0.46875 0.09375 0
0.46875 0.0625 0 0.5 0.0625 0
0.46875 0.09375 0 0.5 0.09375 0
0.5 0.0625 0 0.53125 0.0625 0
0.5 0.09375 0 0.53125 0.09375 0
0.53125 0.0625 0 0.5625 0.0625 0
0.53125 0.09375 0 0.5625 0.09375 0
0.5625 0.0625 0 0.59375 0.0625 0
0.5625 0.09375 0 0.59375 0.09375 0
0.59375 0.0625 0 0.625 0.0625 0
0.59375 0.09375 0 0.625 0.09375 0
0.625 0.0625 0 0.65625 0.0625 0
0.625 0.09375 0 0.65625 0.09375 0
0.65625 0.0625 0 0.6875 0.0625 0
0.65625 0.09375 0 0.6875 0.09375 0
0.6875 0.0625 0 0.71875 0.0625 0
0.6875 0.09375 0 0.71875 0.09375 0
0.71875 0.0625 0 0.75 0.0625 0
0.71875 0.09375 0 0.75 0.09375 0
0.75 0.0625 0 0.78125 0.0625 0
0.75 0.09375 0 0.78125 0.09375 0
0.78125 0.0625 0 0.8125 0.0625 0
0.78125 0.09375 0 0.8125 0.09375 0
0.8125 0.0625 0 0.84375 0.0625 0
0.8125 0.09375 0 0.84375 0.09375 0
0.84375 0.0625 0 0.875 0.0625 0
0.84375 0.09375 0 0.875 0.09375 0
0.875 0.0625 0 0.90625 0.0625 0
0.875 0.09375 0 0.90625 0.09375 0
0.90625 0.0625 0 0.9375 0.0625 0
0.90625 0.09375 0 0.9375 0.09375 0
0.9375 0.0625 0 0.96875 0.0625 0
0.9375 0.09375 0 0.96875 0.09375 0
0.96875 0.0625 0 1 0.0625 0
0.96875 0.09375 0 1 0.09375 0
0 0.09375 0 0.03125 0.09375 0
0 0.125 0 0.03125 0.125 0
0.03125 0.09375 0 0.0625 0.09375 0
0.03125 0.125 0 0.0625 0.125 0
0.0625 0.09375 0 0.09375 0.09375 0
0.0625 0.125 0 0.09375 0.125 0
0.09375 0.09375 0 0.125 0.09375 0
0.09375 0.125 0 0.125 0.125 0
0.125 0.09375 0 0.15625 0.09375 0
0.125 0.125 0 0.15625 0.125 0
0.15625 0.09375 0 0.1875 0.09375 0
0.15625 0.125 0 0.1875 0.125 0
0.1875 0.09375 0 0.21875 0.09375 0
0.1875 0.125 0 0.21875 0.125 0
0.21875 0.09375 0 0.25 0.09375 0
0.21875 0.125 0 0.25 0.125 0
0.25 0.09375 0 0.28125 0.09375 0
0.25 0.125 0 0.28125 0.125 0
0.28125 0.09375 0 0.3125 0.09375 0
0.28125 0.125 0 0.3125 0.125 0
0.3125 0.09375 0 0.34375 0.09375 0
0.3125 0.125 0 0.34375 0.125 0
0.34375 0.09375 0 0.375 0.09375 0
0.34375 0.125 0 0.375 0.125 0
0.375 0.09375 0 0.40625 0.09375 0
0.375 0.125 0 0.40625 0.125 0
0.40625 0.09375 0 0.4375 0.09375 0
0.40625 0.125 0 0.4375 0.125 0
0.4375 0.09375 0 0.46875 0.09375 0
0.4375 0.125 0 0.46875 0.125 0
0.46875 0.09375 0 0.5 0.09375 0
0.46875 0.125 0 0.5 0.125 0
0.5 0.09375 0 0.53125 0.09375 0
0.5 0.125 0 0.53125 0.125 0
0.53125 0.09375 0 0.5625 0.09375 0
0.53125 0.125 0 0.5625 0.125 0
0.5625 0.09375 0 0.59375 0.09375 0
0.5625 0.125 0 0.59375 0.125 0
0.59375 0.09375 0 0.625 0.09375 0
0.59375 0.125 0 0.625 0.125 0
0.625 0.09375 0 0.65625 0.09375 0
0.625 0.125 0 0.65625 0.125 0
0.65625 0.09375 0 0.6875 0.09375 0
0.65625 0.125 0 0.6875 0.125 0
0.6875 0.09375 0 0.71875 0.09375 0
0.6875 0.125 0 0.71875 0.125 0
0.71875 0.09375 0 0.75 0.09375 0
0.71875 0.125 0 0.75 0.125 0
0.75 0.09375 0 0.78125 0.09375 0
0.75 0.125 0 0.78125 0.125 0
0.78125 0.09375 0 0.8125 0.09375 0
0.78125 0.125 0 0.8125 0.125 0
0.8125 0.09375 0 0.84375 0.09375 0
0.8125 0.125 0 0.84375 0.125 0
0.84375 0.09375 0 0.875 0.09375 0
0.84375 0.125 0 0.875 0.125 0
0.875 0.09375 0 0.90625 0.09375 0
0.875 0.125 0 0.90625 0.125 0
0.90625 0.09375 0 0.9375 0.09375 0
0.90625 0.125 0 0.9375 0.125 0
0.9375 0.09375 0 0.96875 0.09375 0
0.9375 0.125 0 0.96875 0.125 0
0.96875 0.09375 0 1 0.09375 0
0.96875 0.125 0 1 0.125 0
0 0.125 0 0.03125 0.125 0
0 0.15625 0 0.03125 0.15625 0
0.03125 0.125 0 0.0625 0.125 0
0.03125 0.15625 0 0.0625 0.15625 0
0.0625 0.125 0 0.09375 0.125 0
0.0625 0.15625 0 0.09375 0.15625 0
0.09375 0.125 0 0.125 0.125 0
0.09375 0.15625 0 0.125 0.15625 0
0.125 0.125 0 0.15625 0.125 0
0.125 0.15625 0 0.15625 0.15625 0
0.15625 0.125 0 0.1875 0.125 0
0.15625 0.15625 0 0.1875 0.15625 0
0.1875 0.125 0 0.21875 0.125 0
0.1875 0.15625 0 0.21875 0.15625 0
0.21875 0.125 0 0.25 0.125 0
0.21875 0.15625 0 0.25 0.15625 0
0.25 0.125 0 0.28125 0.125 0
0.25 0.15625 0 0.28125 0.15625 0
0.28125 0.125 0 0.3125 0.125 0
0.28125 0.15625 0 0.3125 0.15625 0
0.3125 0.125 0 0.34375 0.125 0
0.3125 0.15625 0 0.34375 0.15625 0
0.34375 0.125 0 0.375 0.125 0
0.34375 0.15625 0 0.375 0.15625 0
0.375 0.125 0 0.40625 0.125 0
0.375 0.15625 0 0.40625 0.15625 0
0.40625 0.125 0 0.4375 0.125 0
0.40625 0.15625 0 0.4375 0.15625 0
0.4375 0.125 0 0.46875 0.125 0
0.4375 0.15625 0 0.46875 0.15625 0
0.46875 0.125 0 0.5 0.125 0
0.46875 0.15625 0 0.5 0.15625 0
0.5 0.125 0 0.53125 0.125 0
0.5 0.15625 0 0.53125 0.15625 0
0.53125 0.125 0 0.5625 0.125 0
0.53125 0.15625 0 0.5625 0.15625 0
0.5625 0.125 0 0.59375 0.125 0
0.5625 0.15625 0 0.59375 0.15625 0
0.59375 0.125 0 0.625 0.125 0
0.59375 0.15625 0 0.625 0.15625 0
0.625 0.125 0 0.65625 0.125 0
0.625 0.15625 0 0.65625 0.15625 0
0.65625 0.125 0 0.6875 0.125 0
0.65625 0.15625 0 0.6875 0.15625 0
0.6875 0.125 0 0.71875 0.125 0
0.6875 0.15625 0 0.71875 0.15625 0
0.71875 0.125 0 0.75 0.125 0
0.71875 0.15625 0 0.75 0.15625 0
0.75 0.125 0 0.78125 0.125 0
0.75 0.15625 0 0.78125 0.15625 0
0.78125 0.125 0 0.8125 0.125 0
0.78125 0.15625 0 0.8125 0.15625 0
0.8125 0.125 0 0.84375 0.125 0
[...]
<PointData Vectors="displacements">
<DataArray Name="displacements" type="Float32" NumberOfComponents="3" format="ascii">
0.525868368 -0.469846736 0 0.525868335 -0.452380333 0
0.508402343 -0.469846767 0 0.508402165 -0.452380513 0
0.525868335 -0.452380333 0 0.525867716 -0.434912897 0
0.508402165 -0.452380513 0 0.508401295 -0.434912805 0
0.525867716 -0.434912897 0 0.525865538 -0.417444645 0
0.508401295 -0.434912805 0 0.508399339 -0.417444158 0
0.525865538 -0.417444645 0 0.525861126 -0.39997661 0
0.508399339 -0.417444158 0 0.508396063 -0.399975677 0
0.525861126 -0.39997661 0 0.525854151 -0.38251012 0
0.508396063 -0.399975677 0 0.508391364 -0.382508728 0
0.525854151 -0.38251012 0 0.52584456 -0.365046643 0
0.508391364 -0.382508728 0 0.508385311 -0.365044814 0
0.52584456 -0.365046643 0 0.525832556 -0.347587731 0
0.508385311 -0.365044814 0 0.508378163 -0.34758553 0
0.525832556 -0.347587731 0 0.525818594 -0.330135001 0
0.508378163 -0.34758553 0 0.508370394 -0.330132537 0
0.525818594 -0.330135001 0 0.52580342 -0.312690095 0
0.508370394 -0.330132537 0 0.508362721 -0.312687536 0
0.52580342 -0.312690095 0 0.525788101 -0.295254639 0
0.508362721 -0.312687536 0 0.508356126 -0.295252214 0
0.525788101 -0.295254639 0 0.525774061 -0.277830167 0
0.508356126 -0.295252214 0 0.50835188 -0.277828175 0
0.525774061 -0.277830167 0 0.525763106 -0.260418036 0
0.50835188 -0.277828175 0 0.508351557 -0.260416852 0
0.525763106 -0.260418036 0 0.52575743 -0.243019324 0
0.508351557 -0.260416852 0 0.50835703 -0.243019395 0
0.52575743 -0.243019324 0 0.525759601 -0.225634709 0
0.50835703 -0.243019395 0 0.508370458 -0.22563655 0
0.525759601 -0.225634709 0 0.525772516 -0.208264356 0
0.508370458 -0.22563655 0 0.508394241 -0.208268542 0
0.525772516 -0.208264356 0 0.525799327 -0.190907802 0
0.508394241 -0.208268542 0 0.508430961 -0.190914949 0
0.525799327 -0.190907802 0 0.525843338 -0.173563853 0
0.508430961 -0.190914949 0 0.508483294 -0.173574598 0
0.525843338 -0.173563853 0 0.525907864 -0.156230519 0
0.508483294 -0.173574598 0 0.5085539 -0.156245489 0
0.525907864 -0.156230519 0 0.525996065 -0.138904967 0
0.5085539 -0.156245489 0 0.508645293 -0.138924749 0
0.525996065 -0.138904967 0 0.526110755 -0.121583537 0
0.508645293 -0.138924749 0 0.508759692 -0.121608636 0
0.526110755 -0.121583537 0 0.52625419 -0.104261807 0
0.508759692 -0.121608636 0 0.508898867 -0.104292611 0
0.52625419 -0.104261807 0 0.526427858 -0.0869347339 0
0.508898867 -0.104292611 0 0.50906398 -0.0869714699 0
0.526427858 -0.0869347339 0 0.526632267 -0.0695968574 0
0.50906398 -0.0869714699 0 0.509255442 -0.0696395558 0
0.526632267 -0.0695968574 0 0.526866762 -0.0522425981 0
0.509255442 -0.0696395558 0 0.509472785 -0.0522910607 0
0.526866762 -0.0522425981 0 0.527129381 -0.0348666311 0
0.509472785 -0.0522910607 0 0.509714588 -0.0349204086 0
0.527129381 -0.0348666311 0 0.527416782 -0.0174643473 0
0.509714588 -0.0349204086 0 0.509978449 -0.0175227302 0
0.527416782 -0.0174643473 0 0.527724252 -3.23979674e-05 0
0.509978449 -0.0175227302 0 0.510261047 -9.44244619e-05 0
0.527724252 -3.23979674e-05 0 0.528045864 0.0174306809 0
0.510261047 -9.44244619e-05 0 0.510558305 0.0173661954 0
0.528045864 0.0174306809 0 0.528374835 0.0349237743 0
0.510558305 0.0173661954 0 0.510865683 0.034858186 0
0.528374835 0.0349237743 0 0.528704245 0.0524424935 0
0.510865683 0.034858186 0 0.511178616 0.0523772405 0
0.528704245 0.0524424935 0 0.529028448 0.0699787393 0
0.511178616 0.0523772405 0 0.511492968 0.06991526 0
0.529028448 0.0699787393 0 0.529345003 0.0875231222 0
0.511492968 0.06991526 0 0.51180616 0.0874603799 0
0.508402343 -0.469846767 0 0.508402165 -0.452380513 0
0.490937337 -0.469847375 0 0.490937446 -0.452381392 0
0.508402165 -0.452380513 0 0.508401295 -0.434912805 0
0.490937446 -0.452381392 0 0.490937067 -0.434913278 0
0.508401295 -0.434912805 0 0.508399339 -0.417444158 0
0.490937067 -0.434913278 0 0.49093596 -0.417444134 0
0.508399339 -0.417444158 0 0.508396063 -0.399975677 0
0.49093596 -0.417444134 0 0.4909341 -0.399975169 0
0.508396063 -0.399975677 0 0.508391364 -0.382508728 0
0.4909341 -0.399975169 0 0.490931552 -0.38250776 0
0.508391364 -0.382508728 0 0.508385311 -0.365044814 0
0.490931552 -0.38250776 0 0.490928468 -0.365043414 0
0.508385311 -0.365044814 0 0.508378163 -0.34758553 0
0.490928468 -0.365043414 0 0.490925129 -0.347583741 0
0.508378163 -0.34758553 0 0.508370394 -0.330132537 0
0.490925129 -0.347583741 0 0.490921974 -0.330130435 0
0.508370394 -0.330132537 0 0.508362721 -0.312687536 0
0.490921974 -0.330130435 0 0.490919635 -0.312685239 0
0.508362721 -0.312687536 0 0.508356126 -0.295252214 0
0.490919635 -0.312685239 0 0.490918961 -0.295249902 0
0.508356126 -0.295252214 0 0.50835188 -0.277828175 0
0.490918961 -0.295249902 0 0.490921042 -0.277826097 0
0.50835188 -0.277828175 0 0.508351557 -0.260416852 0
0.490921042 -0.277826097 0 0.490927222 -0.260415335 0
0.508351557 -0.260416852 0 0.50835703 -0.243019395 0
0.490927222 -0.260415335 0 0.490939097 -0.243018844 0
0.50835703 -0.243019395 0 0.508370458 -0.22563655 0
0.490939097 -0.243018844 0 0.490958501 -0.225637454 0
0.508370458 -0.22563655 0 0.508394241 -0.208268542 0
0.490958501 -0.225637454 0 0.490987477 -0.208271461 0
0.508394241 -0.208268542 0 0.508430961 -0.190914949 0
0.490987477 -0.208271461 0 0.491028226 -0.190920504 0
0.508430961 -0.190914949 0 0.508483294 -0.173574598 0
0.491028226 -0.190920504 0 0.49108304 -0.173583452 0
0.508483294 -0.173574598 0 0.5085539 -0.156245489 0
0.49108304 -0.173583452 0 0.49115421 -0.156258319 0
0.5085539 -0.156245489 0 0.508645293 -0.138924749 0
0.49115421 -0.156258319 0 0.491243928 -0.138942215 0
0.508645293 -0.138924749 0 0.508759692 -0.121608636 0
0.491243928 -0.138942215 0 0.491354164 -0.121631345 0
0.508759692 -0.121608636 0 0.508898867 -0.104292611 0
0.491354164 -0.121631345 0 0.491486545 -0.104321073 0
0.508898867 -0.104292611 0 0.50906398 -0.0869714699 0
0.491486545 -0.104321073 0 0.491642232 -0.0870060549 0
0.50906398 -0.0869714699 0 0.509255442 -0.0696395558 0
0.491642232 -0.0870060549 0 0.491821801 -0.0696804514 0
0.509255442 -0.0696395558 0 0.509472785 -0.0522910607 0
0.491821801 -0.0696804514 0 0.492025153 -0.052338231 0
0.509472785 -0.0522910607 0 0.509714588 -0.0349204086 0
0.492025153 -0.052338231 0 0.492251454 -0.0349735585 0
0.509714588 -0.0349204086 0 0.509978449 -0.0175227302 0
0.492251454 -0.0349735585 0 0.492499114 -0.0175812752 0
0.509978449 -0.0175227302 0 0.510261047 -9.44244619e-05 0
0.492499114 -0.0175812752 0 0.492765827 -0.000157463664 0
0.510261047 -9.44244619e-05 0 0.510558305 0.0173661954 0
0.492765827 -0.000157463664 0 0.493048673 0.0172999132 0
0.510558305 0.0173661954 0 0.510865683 0.034858186 0
0.493048673 0.0172999132 0 0.493344255 0.034790324 0
0.510865683 0.034858186 0 0.511178616 0.0523772405 0
0.493344255 0.034790324 0 0.493648854 0.0523099997 0
0.511178616 0.0523772405 0 0.511492968 0.06991526 0
0.493648854 0.0523099997 0 0.493958628 0.0698513121 0
0.511492968 0.06991526 0 0.51180616 0.0874603799 0
0.493958628 0.0698513121 0 0.49426999 0.0874011389 0
0.490937337 -0.469847375 0 0.490937446 -0.452381392 0
0.473473102 -0.469849475 0 0.473473609 -0.452383343 0
0.490937446 -0.452381392 0 0.490937067 -0.434913278 0
0.473473609 -0.452383343 0 0.473473816 -0.434914591 0
0.490937067 -0.434913278 0 0.49093596 -0.417444134 0
0.473473816 -0.434914591 0 0.473473641 -0.417444718 0
0.49093596 -0.417444134 0 0.4909341 -0.399975169 0
0.473473641 -0.417444718 0 0.473473139 -0.399975052 0
0.4909341 -0.399975169 0 0.490931552 -0.38250776 0
0.473473139 -0.399975052 0 0.473472425 -0.382506967 0
0.490931552 -0.38250776 0 0.490928468 -0.365043414 0
0.473472425 -0.382506967 0 0.473471667 -0.365041941 0
0.490928468 -0.365043414 0 0.490925129 -0.347583741 0
0.473471667 -0.365041941 0 0.473471107 -0.347581576 0
0.490925129 -0.347583741 0 0.490921974 -0.330130435 0
0.473471107 -0.347581576 0 0.473471101 -0.330127579 0
0.490921974 -0.330130435 0 0.490919635 -0.312685239 0
0.473471101 -0.330127579 0 0.473472155 -0.312681735 0
0.490919635 -0.312685239 0 0.490918961 -0.295249902 0
0.473472155 -0.312681735 0 0.473474954 -0.295245853 0
0.490918961 -0.295249902 0 0.490921042 -0.277826097 0
0.473474954 -0.295245853 0 0.473480395 -0.277821694 0
0.490921042 -0.277826097 0 0.490927222 -0.260415335 0
0.473480395 -0.277821694 0 0.473489602 -0.260410866 0
0.490927222 -0.260415335 0 0.490939097 -0.243018844 0
0.473489602 -0.260410866 0 0.47350393 -0.243014714 0
0.490939097 -0.243018844 0 0.490958501 -0.225637454 0
0.47350393 -0.243014714 0 0.473524966 -0.225634185 0
0.490958501 -0.225637454 0 0.490987477 -0.208271461 0
0.473524966 -0.225634185 0 0.473554508 -0.208269694 0
0.490987477 -0.208271461 0 0.491028226 -0.190920504 0
0.473554508 -0.208269694 0 0.473594528 -0.190920988 0
0.491028226 -0.190920504 0 0.49108304 -0.173583452 0
0.473594528 -0.190920988 0 0.473647118 -0.173587029 0
0.49108304 -0.173583452 0 0.49115421 -0.156258319 0
0.473647118 -0.173587029 0 0.473714424 -0.156265891 0
0.49115421 -0.156258319 0 0.491243928 -0.138942215 0
0.473714424 -0.156265891 0 0.473798554 -0.138954709 0
0.491243928 -0.138942215 0 0.491354164 -0.121631345 0
0.473798554 -0.138954709 0 0.473901482 -0.121649664 0
0.491354164 -0.121631345 0 0.491486545 -0.104321073 0
0.473901482 -0.121649664 0 0.474024938 -0.104346041 0
0.491486545 -0.104321073 0 0.491642232 -0.0870060549 0
0.474024938 -0.104346041 0 0.474170298 -0.0870383518 0
0.491642232 -0.0870060549 0 0.491821801 -0.0696804514 0
0.474170298 -0.0870383518 0 0.474338473 -0.0697205491 0
0.491821801 -0.0696804514 0 0.492025153 -0.052338231 0
0.474338473 -0.0697205491 0 0.474529823 -0.0523863198 0
0.492025153 -0.052338231 0 0.492251454 -0.0349735585 0
0.474529823 -0.0523863198 0 0.474744077 -0.0350294758 0
0.492251454 -0.0349735585 0 0.492499114 -0.0175812752 0
0.474744077 -0.0350294758 0 0.474980295 -0.0176444284 0
0.492499114 -0.0175812752 0 0.492765827 -0.000157463664 0
0.474980295 -0.0176444284 0 0.475236856 -0.00022674226 0
0.492765827 -0.000157463664 0 0.493048673 0.0172999132 0
0.475236856 -0.00022674226 0 0.475511472 0.0172262533 0
0.493048673 0.0172999132 0 0.493344255 0.034790324 0
0.475511472 0.0172262533 0 0.475801214 0.0347148278 0
0.493344255 0.034790324 0 0.493648854 0.0523099997 0
0.475801214 0.0347148278 0 0.476102532 0.0522362225 0
0.493648854 0.0523099997 0 0.493958628 0.0698513121 0
0.476102532 0.0522362225 0 0.476411263 0.0697839279 0
0.493958628 0.0698513121 0 0.49426999 0.0874011389 0
0.476411263 0.0697839279 0 0.476722275 0.0873467072 0
0.473473102 -0.469849475 0 0.473473609 -0.452383343 0
0.456008616 -0.469853601 0 0.45600954 -0.452386541 0
0.473473609 -0.452383343 0 0.473473816 -0.434914591 0
0.45600954 -0.452386541 0 0.456010273 -0.434916758 0
0.473473816 -0.434914591 0 0.473473641 -0.417444718 0
0.456010273 -0.434916758 0 0.456010902 -0.417445854 0
0.473473641 -0.417444718 0 0.473473139 -0.399975052 0
0.456010902 -0.417445854 0 0.456011522 -0.399975176 0
0.473473139 -0.399975052 0 0.473472425 -0.382506967 0
0.456011522 -0.399975176 0 0.456012235 -0.382506056 0
0.473472425 -0.382506967 0 0.473471667 -0.365041941 0
0.456012235 -0.382506056 0 0.456013153 -0.365039919 0
0.473471667 -0.365041941 0 0.473471107 -0.347581576 0
0.456013153 -0.365039919 0 0.456014426 -0.347578332 0
0.473471107 -0.347581576 0 0.473471101 -0.330127579 0
0.456014426 -0.347578332 0 0.456016278 -0.330123006 0
0.473471101 -0.330127579 0 0.473472155 -0.312681735 0
0.456016278 -0.330123006 0 0.456019054 -0.312675765 0
0.473472155 -0.312681735 0 0.473474954 -0.295245853 0
0.456019054 -0.312675765 0 0.456023252 -0.295238497 0
0.473474954 -0.295245853 0 0.473480395 -0.277821694 0
0.456023252 -0.295238497 0 0.456029565 -0.277813073 0
0.473480395 -0.277821694 0 0.473489602 -0.260410866 0
0.456029565 -0.277813073 0 0.456038905 -0.260401242 0
0.473489602 -0.260410866 0 0.47350393 -0.243014714 0
0.456038905 -0.260401242 0 0.456052421 -0.243004514 0
0.47350393 -0.243014714 0 0.473524966 -0.225634185 0
0.456052421 -0.243004514 0 0.456071508 -0.225624017 0
0.473524966 -0.225634185 0 0.473554508 -0.208269694 0
0.456071508 -0.225624017 0 0.456097806 -0.208260351 0
0.473554508 -0.208269694 0 0.473594528 -0.190920988 0
0.456097806 -0.208260351 0 0.456133168 -0.190913446 0
0.473594528 -0.190920988 0 0.473647118 -0.173587029 0
0.456133168 -0.190913446 0 0.456179634 -0.173582424 0
0.473647118 -0.173587029 0 0.473714424 -0.156265891 0
0.456179634 -0.173582424 0 0.456239362 -0.156265489 0
0.473714424 -0.156265891 0 0.473798554 -0.138954709 0
0.456239362 -0.156265489 0 0.456314559 -0.138959853 0
0.473798554 -0.138954709 0 0.473901482 -0.121649664 0
0.456314559 -0.138959853 0 0.456407388 -0.121661708 0
0.473901482 -0.121649664 0 0.474024938 -0.104346041 0
0.456407388 -0.121661708 0 0.456519858 -0.10436627 0
0.474024938 -0.104346041 0 0.474170298 -0.0870383518 0
0.456519858 -0.10436627 0 0.456653713 -0.0870678862 0
0.474170298 -0.0870383518 0 0.474338473 -0.0697205491 0
0.456653713 -0.0870678862 0 0.456810313 -0.0697602367 0
0.474338473 -0.0697205491 0 0.474529823 -0.0523863198 0
0.456810313 -0.0697602367 0 0.456990519 -0.0524366221 0
0.474529823 -0.0523863198 0 0.474744077 -0.0350294758 0
0.456990519 -0.0524366221 0 0.457194592 -0.0350903426 0
0.474744077 -0.0350294758 0 0.474980295 -0.0176444284 0
0.457194592 -0.0350903426 0 0.457422106 -0.0177151633 0
0.474980295 -0.0176444284 0 0.475236856 -0.00022674226 0
0.457422106 -0.0177151633 0 0.457671876 -0.000305850993 0
0.475236856 -0.00022674226 0 0.475511472 0.0172262533 0
0.457671876 -0.000305850993 0 0.457941906 0.017141244 0
0.475511472 0.0172262533 0 0.475801214 0.0347148278 0
0.457941906 0.017141244 0 0.458229332 0.0346275928 0
0.475801214 0.0347148278 0 0.476102532 0.0522362225 0
0.458229332 0.0346275928 0 0.458530351 0.0521519077 0
0.476102532 0.0522362225 0 0.476411263 0.0697839279 0
0.458530351 0.0521519077 0 0.458840067 0.0697096031 0
0.476411263 0.0697839279 0 0.476722275 0.0873467072 0
0.458840067 0.0697096031 0 0.459152063 0.0872924657 0
0.456008616 -0.469853601 0 0.45600954 -0.452386541 0
0.438542697 -0.469859858 0 0.438544006 -0.452391004 0
0.45600954 -0.452386541 0 0.456010273 -0.434916758 0
0.438544006 -0.452391004 0 0.438545176 -0.434919704 0
0.456010273 -0.434916758 0 0.456010902 -0.417445854 0
0.438545176 -0.434919704 0 0.438546438 -0.417447413 0
0.456010902 -0.417445854 0 0.456011522 -0.399975176 0
0.438546438 -0.417447413 0 0.438547914 -0.39997536 0
0.456011522 -0.399975176 0 0.456012235 -0.382506056 0
0.438547914 -0.39997536 0 0.438549653 -0.382504762 0
0.456012235 -0.382506056 0 0.456013153 -0.365039919 0
0.438549653 -0.382504762 0 0.438551663 -0.365036952 0
0.456013153 -0.365039919 0 0.456014426 -0.347578332 0
0.438551663 -0.365036952 0 0.438553956 -0.347573442 0
0.456014426 -0.347578332 0 0.456016278 -0.330123006 0
0.438553956 -0.347573442 0 0.438556588 -0.330115937 0
0.456016278 -0.330123006 0 0.456019054 -0.312675765 0
0.438556588 -0.330115937 0 0.438559707 -0.312666309 0
0.456019054 -0.312675765 0 0.456023252 -0.295238497 0
0.438559707 -0.312666309 0 0.438563605 -0.295226544 0
0.456023252 -0.295238497 0 0.456029565 -0.277813073 0
0.438563605 -0.295226544 0 0.438568757 -0.277798663 0
0.456029565 -0.277813073 0 0.456038905 -0.260401242 0
0.438568757 -0.277798663 0 0.438575865 -0.260384608 0
0.456038905 -0.260401242 0 0.456052421 -0.243004514 0
0.438575865 -0.260384608 0 0.43858589 -0.242986122 0
0.456052421 -0.243004514 0 0.456071508 -0.225624017 0
0.43858589 -0.242986122 0 0.438600075 -0.22560459 0
0.456071508 -0.225624017 0 0.456097806 -0.208260351 0
0.438600075 -0.22560459 0 0.438619956 -0.208240891 0
0.456097806 -0.208260351 0 0.456133168 -0.190913446 0
0.438619956 -0.208240891 0 0.438647353 -0.190895226 0
0.456133168 -0.190913446 0 0.456179634 -0.173582424 0
0.438647353 -0.190895226 0 0.43868435 -0.173566972 0
0.456179634 -0.173582424 0 0.456239362 -0.156265489 0
0.43868435 -0.173566972 0 0.438733241 -0.156254543 0
0.456239362 -0.156265489 0 0.456314559 -0.138959853 0
0.438733241 -0.156254543 0 0.438796464 -0.138955295 0
0.456314559 -0.138959853 0 0.456407388 -0.121661708 0
0.438796464 -0.138955295 0 0.438876507 -0.121665475 0
0.456407388 -0.121661708 0 0.456519858 -0.10436627 0
0.438876507 -0.121665475 0 0.438975795 -0.104380234 0
0.456519858 -0.10436627 0 0.456653713 -0.0870678862 0
0.438975795 -0.104380234 0 0.439096557 -0.0870937205 0
0.456653713 -0.0870678862 0 0.456810313 -0.0697602367 0
0.439096557 -0.0870937205 0 0.439240685 -0.0697992592 0
0.456810313 -0.0697602367 0 0.456990519 -0.0524366221 0
0.439240685 -0.0697992592 0 0.439409584 -0.0524896219 0
0.456990519 -0.0524366221 0 0.457194592 -0.0350903426 0
0.439409584 -0.0524896219 0 0.439604028 -0.0351573957 0
0.457194592 -0.0350903426 0 0.457422106 -0.0177151633 0
0.439604028 -0.0351573957 0 0.439824019 -0.017795436 0
0.457422106 -0.0177151633 0 0.457671876 -0.000305850993 0
0.439824019 -0.017795436 0 0.440068657 -0.000397390064 0
0.457671876 -0.000305850993 0 0.457941906 0.017141244 0
0.440068657 -0.000397390064 0 0.440336026 0.0170417377 0
0.457941906 0.017141244 0 0.458229332 0.0346275928 0
0.440336026 0.0170417377 0 0.440623082 0.0345250174 0
0.458229332 0.0346275928 0 0.458530351 0.0521519077 0
0.440623082 0.0345250174 0 0.440925526 0.0520530721 0
0.458530351 0.0521519077 0 0.458840067 0.0697096031 0
0.440925526 0.0520530721 0 0.441237626 0.0696236956 0
0.458840067 0.0697096031 0 0.459152063 0.0872924657 0
0.441237626 0.0696236956 0 0.441551931 0.087231793 0
0.438542697 -0.469859858 0 0.438544006 -0.452391004 0
0.42107425 -0.469868028 0 0.421075874 -0.452396594 0
0.438544006 -0.452391004 0 0.438545176 -0.434919704 0
0.421075874 -0.452396594 0 0.421077391 -0.434923304 0
0.438545176 -0.434919704 0 0.438546438 -0.417447413 0
0.421077391 -0.434923304 0 0.421079142 -0.417449274 0
0.438546438 -0.417447413 0 0.438547914 -0.39997536 0
0.421079142 -0.417449274 0 0.421081249 -0.399975469 0
0.438547914 -0.39997536 0 0.438549653 -0.382504762 0
0.421081249 -0.399975469 0 0.421083682 -0.382502906 0
0.438549653 -0.382504762 0 0.438551663 -0.365036952 0
0.421083682 -0.382502906 0 0.421086316 -0.365032775 0
0.438551663 -0.365036952 0 0.438553956 -0.347573442 0
0.421086316 -0.365032775 0 0.421088989 -0.347566512 0
0.438553956 -0.347573442 0 0.438556588 -0.330115937 0
0.421088989 -0.347566512 0 0.421091556 -0.330105809 0
0.438556588 -0.330115937 0 0.438559707 -0.312666309 0
0.421091556 -0.330105809 0 0.421093946 -0.312652595 0
0.438559707 -0.312666309 0 0.438563605 -0.295226544 0
0.421093946 -0.312652595 0 0.421096215 -0.295208985 0
0.438563605 -0.295226544 0 0.438568757 -0.277798663 0
0.421096215 -0.295208985 0 0.421098605 -0.277777192 0
0.438568757 -0.277798663 0 0.438575865 -0.260384608 0
0.421098605 -0.277777192 0 0.4211016 -0.260359416 0
0.438575865 -0.260384608 0 0.43858589 -0.242986122 0
0.4211016 -0.260359416 0 0.421105974 -0.24295771 0
0.43858589 -0.242986122 0 0.438600075 -0.22560459 0
0.421105974 -0.24295771 0 0.421112832 -0.225573817 0
0.438600075 -0.22560459 0 0.438619956 -0.208240891 0
0.421112832 -0.225573817 0 0.421123641 -0.208208996 0
0.438619956 -0.208240891 0 0.438647353 -0.190895226 0
0.421123641 -0.208208996 0 0.421140235 -0.190863835 0
0.438647353 -0.190895226 0 0.43868435 -0.173566972 0
0.421140235 -0.190863835 0 0.421164811 -0.173538076 0
0.43868435 -0.173566972 0 0.438733241 -0.156254543 0
0.421164811 -0.173538076 0 0.421199882 -0.156230446 0
0.438733241 -0.156254543 0 0.438796464 -0.138955295 0
0.421199882 -0.156230446 0 0.421248218 -0.138938528 0
0.438796464 -0.138955295 0 0.438876507 -0.121665475 0
0.421248218 -0.138938528 0 0.42131274 -0.121658675 0
0.438876507 -0.121665475 0 0.438975795 -0.104380234 0
0.42131274 -0.121658675 0 0.421396395 -0.104385989 0
0.438975795 -0.104380234 0 0.439096557 -0.0870937205 0
0.421396395 -0.104385989 0 0.421502 -0.0871143806 0
0.439096557 -0.0870937205 0 0.439240685 -0.0697992592 0
0.421502 -0.0871143806 0 0.421632062 -0.0698367219 0
0.439240685 -0.0697992592 0 0.439409584 -0.0524896219 0